<?xml version='1.0' encoding='UTF-8'?>
<VTKFile xmlns='VTK' byte_order='LittleEndian' version='0.1' type='UnstructuredGrid' Name='FiniteElement'>
<UnstructuredGrid>
<Piece NumberOfCells='15' NumberOfPoints='24' DegreesOfFreedom='2'>
<Points>
<DataArray NumberOfComponents='3' type='Float32' Name='Position' format='ascii'>
0.000000e+00 0.000000e+00 0.000000 
1.000000e-05 0.000000e+00 0.000000 
2.000000e-05 0.000000e+00 0.000000 
3.000000e-05 0.000000e+00 0.000000 
0.000000e+00 1.000000e-05 0.000000 
1.000000e-05 1.000000e-05 0.000000 
2.000000e-05 1.000000e-05 0.000000 
3.000000e-05 1.000000e-05 0.000000 
0.000000e+00 2.000000e-05 0.000000 
1.000000e-05 2.000000e-05 0.000000 
2.000000e-05 2.000000e-05 0.000000 
3.000000e-05 2.000000e-05 0.000000 
0.000000e+00 3.000000e-05 0.000000 
1.000000e-05 3.000000e-05 0.000000 
2.000000e-05 3.000000e-05 0.000000 
3.000000e-05 3.000000e-05 0.000000 
0.000000e+00 4.000000e-05 0.000000 
1.000000e-05 4.000000e-05 0.000000 
2.000000e-05 4.000000e-05 0.000000 
3.000000e-05 4.000000e-05 0.000000 
0.000000e+00 5.000000e-05 0.000000 
1.000000e-05 5.000000e-05 0.000000 
2.000000e-05 5.000000e-05 0.000000 
3.000000e-05 5.000000e-05 0.000000 
</DataArray>
</Points>
<Cells>
<DataArray type='Int32' Name='connectivity' format='ascii'>
0 1 5 4 
1 2 6 5 
2 3 7 6 
4 5 9 8 
5 6 10 9 
6 7 11 10 
8 9 13 12 
9 10 14 13 
10 11 15 14 
12 13 17 16 
13 14 18 17 
14 15 19 18 
16 17 21 20 
17 18 22 21 
18 19 23 22 
</DataArray>
<DataArray type='Int32' Name='offsets' format='ascii'>
4
8
12
16
20
24
28
32
36
40
44
48
52
56
60
</DataArray>
<DataArray type='UInt8' Name='types' format='ascii'>
7
7
7
7
7
7
7
7
7
7
7
7
7
7
7
</DataArray>
</Cells>
<PointData>
<DataArray NumberOfComponents='1' type='UInt8' Name='Cryst' format='ascii'>
0
0
0
0
0
0
0
0
0
0
0
0
0
0
0
0
1
1
1
1
1
1
1
1
</DataArray>
<DataArray NumberOfComponents='1' type='UInt8' Name='Mater' format='ascii'>
0
0
0
0
0
0
0
0
0
0
0
0
0
0
0
0
0
0
0
0
0
0
0
0
</DataArray>
<DataArray NumberOfComponents='3' type='Int8' Name='Boundary Condition' format='ascii'>
1 1 0
0 1 0
0 1 0
0 1 0
0 0 0
0 0 0
0 0 0
0 0 0
0 0 0
0 0 0
0 0 0
0 0 0
0 0 0
0 0 0
0 0 0
0 0 0
0 0 0
0 0 0
0 0 0
0 0 0
0 -1 0
0 -1 0
0 -1 0
0 -1 0
</DataArray>
<DataArray NumberOfComponents='3' type='Float32' Name='Prescribed Displacement' format='ascii'>
0.000000 0.000000 0.000000
0.000000 0.000000 0.000000
0.000000 0.000000 0.000000
0.000000 0.000000 0.000000
0.000000 0.000000 0.000000
0.000000 0.000000 0.000000
0.000000 0.000000 0.000000
0.000000 0.000000 0.000000
0.000000 0.000000 0.000000
0.000000 0.000000 0.000000
0.000000 0.000000 0.000000
0.000000 0.000000 0.000000
0.000000 0.000000 0.000000
0.000000 0.000000 0.000000
0.000000 0.000000 0.000000
0.000000 0.000000 0.000000
0.000000 0.000000 0.000000
0.000000 0.000000 0.000000
0.000000 0.000000 0.000000
0.000000 0.000000 0.000000
0.000000 -5.000000e-10 0.000000
0.000000 -5.000000e-10 0.000000
0.000000 -5.000000e-10 0.000000
0.000000 -5.000000e-10 0.000000
</DataArray>
<DataArray NumberOfComponents='3' type='UInt8' Name='Multi-Point Constraints' format='ascii'>
0 0 0
0 0 0
0 0 0
0 0 0
0 0 0
0 0 0
0 0 0
0 0 0
0 0 0
0 0 0
0 0 0
0 0 0
0 0 0
0 0 0
0 0 0
0 0 0
0 0 0
0 0 0
0 0 0
0 0 0
0 0 0
0 0 0
0 0 0
0 0 0
</DataArray>
<DataArray NumberOfComponents='3' type='Float32' Name='MPC Ratio' format='ascii'>
0.000000 0.000000 0.000000
0.000000 0.000000 0.000000
0.000000 0.000000 0.000000
0.000000 0.000000 0.000000
0.000000 0.000000 0.000000
0.000000 0.000000 0.000000
0.000000 0.000000 0.000000
0.000000 0.000000 0.000000
0.000000 0.000000 0.000000
0.000000 0.000000 0.000000
0.000000 0.000000 0.000000
0.000000 0.000000 0.000000
0.000000 0.000000 0.000000
0.000000 0.000000 0.000000
0.000000 0.000000 0.000000
0.000000 0.000000 0.000000
0.000000 0.000000 0.000000
0.000000 0.000000 0.000000
0.000000 0.000000 0.000000
0.000000 0.000000 0.000000
0.000000 0.000000 0.000000
0.000000 0.000000 0.000000
0.000000 0.000000 0.000000
0.000000 0.000000 0.000000
</DataArray>
<DataArray NumberOfComponents='3' type='Float32' Name='Crystal Orientation' format='ascii'>
90.000000 0.000000 95.000000
90.000000 0.000000 95.000000
90.000000 0.000000 95.000000
90.000000 0.000000 95.000000
90.000000 0.000000 95.000000
90.000000 0.000000 95.000000
90.000000 0.000000 95.000000
90.000000 0.000000 95.000000
90.000000 0.000000 95.000000
90.000000 0.000000 95.000000
90.000000 0.000000 95.000000
90.000000 0.000000 95.000000
90.000000 0.000000 95.000000
90.000000 0.000000 95.000000
90.000000 0.000000 95.000000
90.000000 0.000000 95.000000
90.000000 0.000000 95.000000
90.000000 0.000000 95.000000
90.000000 0.000000 95.000000
90.000000 0.000000 95.000000
90.000000 0.000000 95.000000
90.000000 0.000000 95.000000
90.000000 0.000000 95.000000
90.000000 0.000000 95.000000
</DataArray>
<DataArray NumberOfComponents='1' type='Float32' Name='Phase-field' format='ascii'>
1.000000
1.000000
1.000000
1.000000
1.000000
1.000000
1.000000
1.000000
1.000000
1.000000
1.000000
1.000000
1.000000
1.000000
1.000000
1.000000
1.000000
1.000000
1.000000
1.000000
1.000000
1.000000
1.000000
1.000000
</DataArray>
<DataArray NumberOfComponents='1' type='UInt8' Name='Phase Flag' format='ascii'>
0
0
0
0
0
0
0
0
0
0
0
0
0
0
0
0
0
0
0
0
0
0
0
0
</DataArray>
</PointData>
<CellData>
<DataArray NumberOfComponents='1' type='UInt8' Name='Cryst' format='ascii'>
0
0
0
0
0
0
0
0
0
1
1
1
1
1
1
</DataArray>
<DataArray NumberOfComponents='1' type='UInt8' Name='Mater' format='ascii'>
0
0
0
0
0
0
0
0
0
0
0
0
0
0
0
</DataArray>
<DataArray NumberOfComponents='3' type='Float32' Name='Crystal Orientation' format='ascii'>
90.000000 0.000000 95.000000
90.000000 0.000000 95.000000
90.000000 0.000000 95.000000
90.000000 0.000000 95.000000
90.000000 0.000000 95.000000
90.000000 0.000000 95.000000
90.000000 0.000000 95.000000
90.000000 0.000000 95.000000
90.000000 0.000000 95.000000
90.000000 0.000000 95.000000
90.000000 0.000000 95.000000
90.000000 0.000000 95.000000
90.000000 0.000000 95.000000
90.000000 0.000000 95.000000
90.000000 0.000000 95.000000
</DataArray>
<DataArray NumberOfComponents='1' type='Float32' Name='Phase-field' format='ascii'>
1.000000
1.000000
1.000000
1.000000
1.000000
1.000000
1.000000
1.000000
1.000000
1.000000
1.000000
1.000000
1.000000
1.000000
1.000000
</DataArray>
<DataArray NumberOfComponents='1' type='UInt8' Name='Phase Flag' format='ascii'>
0
0
0
0
0
0
0
0
0
0
0
0
0
0
0
</DataArray>
</CellData>
</Piece>
</UnstructuredGrid>
</VTKFile>
